# vtk DataFile Version 3.0
Current density vector field
ASCII

DATASET STRUCTURED_GRID
DIMENSIONS      57     57      1
POINTS       3249 float
    -7.408    -7.408     0.529
    -7.408    -7.144     0.529
    -7.408    -6.879     0.529
    -7.408    -6.615     0.529
    -7.408    -6.350     0.529
    -7.408    -6.086     0.529
    -7.408    -5.821     0.529
    -7.408    -5.556     0.529
    -7.408    -5.292     0.529
    -7.408    -5.027     0.529
    -7.408    -4.763     0.529
    -7.408    -4.498     0.529
    -7.408    -4.233     0.529
    -7.408    -3.969     0.529
    -7.408    -3.704     0.529
    -7.408    -3.440     0.529
    -7.408    -3.175     0.529
    -7.408    -2.910     0.529
    -7.408    -2.646     0.529
    -7.408    -2.381     0.529
    -7.408    -2.117     0.529
    -7.408    -1.852     0.529
    -7.408    -1.588     0.529
    -7.408    -1.323     0.529
    -7.408    -1.058     0.529
    -7.408    -0.794     0.529
    -7.408    -0.529     0.529
    -7.408    -0.265     0.529
    -7.408     0.000     0.529
    -7.408     0.265     0.529
    -7.408     0.529     0.529
    -7.408     0.794     0.529
    -7.408     1.058     0.529
    -7.408     1.323     0.529
    -7.408     1.588     0.529
    -7.408     1.852     0.529
    -7.408     2.117     0.529
    -7.408     2.381     0.529
    -7.408     2.646     0.529
    -7.408     2.910     0.529
    -7.408     3.175     0.529
    -7.408     3.440     0.529
    -7.408     3.704     0.529
    -7.408     3.969     0.529
    -7.408     4.233     0.529
    -7.408     4.498     0.529
    -7.408     4.763     0.529
    -7.408     5.027     0.529
    -7.408     5.292     0.529
    -7.408     5.556     0.529
    -7.408     5.821     0.529
    -7.408     6.086     0.529
    -7.408     6.350     0.529
    -7.408     6.615     0.529
    -7.408     6.879     0.529
    -7.408     7.144     0.529
    -7.408     7.408     0.529
    -7.144    -7.408     0.529
    -7.144    -7.144     0.529
    -7.144    -6.879     0.529
    -7.144    -6.615     0.529
    -7.144    -6.350     0.529
    -7.144    -6.086     0.529
    -7.144    -5.821     0.529
    -7.144    -5.556     0.529
    -7.144    -5.292     0.529
    -7.144    -5.027     0.529
    -7.144    -4.763     0.529
    -7.144    -4.498     0.529
    -7.144    -4.233     0.529
    -7.144    -3.969     0.529
    -7.144    -3.704     0.529
    -7.144    -3.440     0.529
    -7.144    -3.175     0.529
    -7.144    -2.910     0.529
    -7.144    -2.646     0.529
    -7.144    -2.381     0.529
    -7.144    -2.117     0.529
    -7.144    -1.852     0.529
    -7.144    -1.588     0.529
    -7.144    -1.323     0.529
    -7.144    -1.058     0.529
    -7.144    -0.794     0.529
    -7.144    -0.529     0.529
    -7.144    -0.265     0.529
    -7.144     0.000     0.529
    -7.144     0.265     0.529
    -7.144     0.529     0.529
    -7.144     0.794     0.529
    -7.144     1.058     0.529
    -7.144     1.323     0.529
    -7.144     1.588     0.529
    -7.144     1.852     0.529
    -7.144     2.117     0.529
    -7.144     2.381     0.529
    -7.144     2.646     0.529
    -7.144     2.910     0.529
    -7.144     3.175     0.529
    -7.144     3.440     0.529
    -7.144     3.704     0.529
    -7.144     3.969     0.529
    -7.144     4.233     0.529
    -7.144     4.498     0.529
    -7.144     4.763     0.529
    -7.144     5.027     0.529
    -7.144     5.292     0.529
    -7.144     5.556     0.529
    -7.144     5.821     0.529
    -7.144     6.086     0.529
    -7.144     6.350     0.529
    -7.144     6.615     0.529
    -7.144     6.879     0.529
    -7.144     7.144     0.529
    -7.144     7.408     0.529
    -6.879    -7.408     0.529
    -6.879    -7.144     0.529
    -6.879    -6.879     0.529
    -6.879    -6.615     0.529
    -6.879    -6.350     0.529
    -6.879    -6.086     0.529
    -6.879    -5.821     0.529
    -6.879    -5.556     0.529
    -6.879    -5.292     0.529
    -6.879    -5.027     0.529
    -6.879    -4.763     0.529
    -6.879    -4.498     0.529
    -6.879    -4.233     0.529
    -6.879    -3.969     0.529
    -6.879    -3.704     0.529
    -6.879    -3.440     0.529
    -6.879    -3.175     0.529
    -6.879    -2.910     0.529
    -6.879    -2.646     0.529
    -6.879    -2.381     0.529
    -6.879    -2.117     0.529
    -6.879    -1.852     0.529
    -6.879    -1.588     0.529
    -6.879    -1.323     0.529
    -6.879    -1.058     0.529
    -6.879    -0.794     0.529
    -6.879    -0.529     0.529
    -6.879    -0.265     0.529
    -6.879     0.000     0.529
    -6.879     0.265     0.529
    -6.879     0.529     0.529
    -6.879     0.794     0.529
    -6.879     1.058     0.529
    -6.879     1.323     0.529
    -6.879     1.588     0.529
    -6.879     1.852     0.529
    -6.879     2.117     0.529
    -6.879     2.381     0.529
    -6.879     2.646     0.529
    -6.879     2.910     0.529
    -6.879     3.175     0.529
    -6.879     3.440     0.529
    -6.879     3.704     0.529
    -6.879     3.969     0.529
    -6.879     4.233     0.529
    -6.879     4.498     0.529
    -6.879     4.763     0.529
    -6.879     5.027     0.529
    -6.879     5.292     0.529
    -6.879     5.556     0.529
    -6.879     5.821     0.529
    -6.879     6.086     0.529
    -6.879     6.350     0.529
    -6.879     6.615     0.529
    -6.879     6.879     0.529
    -6.879     7.144     0.529
    -6.879     7.408     0.529
    -6.615    -7.408     0.529
    -6.615    -7.144     0.529
    -6.615    -6.879     0.529
    -6.615    -6.615     0.529
    -6.615    -6.350     0.529
    -6.615    -6.086     0.529
    -6.615    -5.821     0.529
    -6.615    -5.556     0.529
    -6.615    -5.292     0.529
    -6.615    -5.027     0.529
    -6.615    -4.763     0.529
    -6.615    -4.498     0.529
    -6.615    -4.233     0.529
    -6.615    -3.969     0.529
    -6.615    -3.704     0.529
    -6.615    -3.440     0.529
    -6.615    -3.175     0.529
    -6.615    -2.910     0.529
    -6.615    -2.646     0.529
    -6.615    -2.381     0.529
    -6.615    -2.117     0.529
    -6.615    -1.852     0.529
    -6.615    -1.588     0.529
    -6.615    -1.323     0.529
    -6.615    -1.058     0.529
    -6.615    -0.794     0.529
    -6.615    -0.529     0.529
    -6.615    -0.265     0.529
    -6.615     0.000     0.529
    -6.615     0.265     0.529
    -6.615     0.529     0.529
    -6.615     0.794     0.529
    -6.615     1.058     0.529
    -6.615     1.323     0.529
    -6.615     1.588     0.529
    -6.615     1.852     0.529
    -6.615     2.117     0.529
    -6.615     2.381     0.529
    -6.615     2.646     0.529
    -6.615     2.910     0.529
    -6.615     3.175     0.529
    -6.615     3.440     0.529
    -6.615     3.704     0.529
    -6.615     3.969     0.529
    -6.615     4.233     0.529
    -6.615     4.498     0.529
    -6.615     4.763     0.529
    -6.615     5.027     0.529
    -6.615     5.292     0.529
    -6.615     5.556     0.529
    -6.615     5.821     0.529
    -6.615     6.086     0.529
    -6.615     6.350     0.529
    -6.615     6.615     0.529
    -6.615     6.879     0.529
    -6.615     7.144     0.529
    -6.615     7.408     0.529
    -6.350    -7.408     0.529
    -6.350    -7.144     0.529
    -6.350    -6.879     0.529
    -6.350    -6.615     0.529
    -6.350    -6.350     0.529
    -6.350    -6.086     0.529
    -6.350    -5.821     0.529
    -6.350    -5.556     0.529
    -6.350    -5.292     0.529
    -6.350    -5.027     0.529
    -6.350    -4.763     0.529
    -6.350    -4.498     0.529
    -6.350    -4.233     0.529
    -6.350    -3.969     0.529
    -6.350    -3.704     0.529
    -6.350    -3.440     0.529
    -6.350    -3.175     0.529
    -6.350    -2.910     0.529
    -6.350    -2.646     0.529
    -6.350    -2.381     0.529
    -6.350    -2.117     0.529
    -6.350    -1.852     0.529
    -6.350    -1.588     0.529
    -6.350    -1.323     0.529
    -6.350    -1.058     0.529
    -6.350    -0.794     0.529
    -6.350    -0.529     0.529
    -6.350    -0.265     0.529
    -6.350     0.000     0.529
    -6.350     0.265     0.529
    -6.350     0.529     0.529
    -6.350     0.794     0.529
    -6.350     1.058     0.529
    -6.350     1.323     0.529
    -6.350     1.588     0.529
    -6.350     1.852     0.529
    -6.350     2.117     0.529
    -6.350     2.381     0.529
    -6.350     2.646     0.529
    -6.350     2.910     0.529
    -6.350     3.175     0.529
    -6.350     3.440     0.529
    -6.350     3.704     0.529
    -6.350     3.969     0.529
    -6.350     4.233     0.529
    -6.350     4.498     0.529
    -6.350     4.763     0.529
    -6.350     5.027     0.529
    -6.350     5.292     0.529
    -6.350     5.556     0.529
    -6.350     5.821     0.529
    -6.350     6.086     0.529
    -6.350     6.350     0.529
    -6.350     6.615     0.529
    -6.350     6.879     0.529
    -6.350     7.144     0.529
    -6.350     7.408     0.529
    -6.086    -7.408     0.529
    -6.086    -7.144     0.529
    -6.086    -6.879     0.529
    -6.086    -6.615     0.529
    -6.086    -6.350     0.529
    -6.086    -6.086     0.529
    -6.086    -5.821     0.529
    -6.086    -5.556     0.529
    -6.086    -5.292     0.529
    -6.086    -5.027     0.529
    -6.086    -4.763     0.529
    -6.086    -4.498     0.529
    -6.086    -4.233     0.529
    -6.086    -3.969     0.529
    -6.086    -3.704     0.529
    -6.086    -3.440     0.529
    -6.086    -3.175     0.529
    -6.086    -2.910     0.529
    -6.086    -2.646     0.529
    -6.086    -2.381     0.529
    -6.086    -2.117     0.529
    -6.086    -1.852     0.529
    -6.086    -1.588     0.529
    -6.086    -1.323     0.529
    -6.086    -1.058     0.529
    -6.086    -0.794     0.529
    -6.086    -0.529     0.529
    -6.086    -0.265     0.529
    -6.086     0.000     0.529
    -6.086     0.265     0.529
    -6.086     0.529     0.529
    -6.086     0.794     0.529
[...]
POINT_DATA       3249
VECTORS point_vectors float
     0.000    -0.000     0.000
     0.000    -0.000     0.000
     0.000    -0.000     0.000
     0.000    -0.000     0.000
     0.000    -0.000     0.000
     0.000    -0.000     0.000
     0.000    -0.000     0.000
     0.000    -0.000     0.000
     0.000    -0.000     0.000
     0.000    -0.000     0.000
     0.000    -0.000     0.000
     0.000    -0.000     0.000
     0.000    -0.000     0.000
     0.000    -0.000     0.000
     0.000    -0.000     0.000
     0.000    -0.000     0.000
     0.000    -0.000     0.000
    -0.000    -0.000     0.000
    -0.000    -0.000     0.000
    -0.000    -0.000     0.000
    -0.000    -0.000     0.000
    -0.000    -0.000     0.000
    -0.000    -0.000     0.000
    -0.000    -0.000     0.000
    -0.000    -0.000     0.000
    -0.000    -0.000     0.000
    -0.000     0.000     0.000
    -0.000     0.000     0.000
    -0.000     0.000     0.000
     0.000     0.000     0.000
     0.000     0.000     0.000
     0.000    -0.000     0.000
     0.000    -0.000     0.000
     0.000    -0.000     0.000
     0.000    -0.000     0.000
     0.000    -0.000     0.000
     0.000    -0.000     0.000
     0.000    -0.000     0.000
     0.000    -0.000     0.000
     0.000    -0.000     0.000
    -0.000    -0.000     0.000
    -0.000    -0.000     0.000
    -0.000    -0.000     0.000
    -0.000    -0.000     0.000
    -0.000    -0.000     0.000
    -0.000    -0.000     0.000
    -0.000    -0.000     0.000
    -0.000    -0.000     0.000
    -0.000    -0.000     0.000
    -0.000    -0.000     0.000
    -0.000    -0.000     0.000
    -0.000    -0.000     0.000
    -0.000    -0.000     0.000
    -0.000    -0.000     0.000
    -0.000    -0.000     0.000
    -0.000    -0.000     0.000
    -0.000    -0.000     0.000
     0.000    -0.000     0.000
     0.000    -0.000     0.000
     0.000    -0.000     0.000
     0.000    -0.000     0.000
     0.000    -0.000     0.000
     0.000    -0.000     0.000
     0.000    -0.000     0.000
     0.000    -0.000     0.000
     0.000    -0.000     0.000
     0.000    -0.000     0.000
     0.000    -0.000     0.000
     0.000    -0.000     0.000
     0.000    -0.000     0.000
     0.000    -0.000     0.000
     0.000    -0.000     0.000
     0.000    -0.000     0.000
     0.000    -0.000     0.000
     0.000    -0.000     0.000
    -0.000    -0.000     0.000
    -0.000    -0.000     0.000
    -0.000    -0.000     0.000
    -0.000    -0.000     0.000
    -0.000    -0.000     0.000
    -0.000    -0.000     0.000
    -0.000    -0.000     0.000
    -0.000    -0.000     0.000
    -0.000    -0.000     0.000
    -0.000     0.000     0.000
    -0.000     0.000     0.000
     0.000     0.000     0.000
     0.000    -0.000     0.000
     0.000    -0.000     0.000
     0.000    -0.000     0.000
     0.000    -0.000     0.000
     0.000    -0.000     0.000
     0.000    -0.000     0.000
     0.000    -0.000     0.000
     0.000    -0.000     0.000
     0.000    -0.000     0.000
    -0.000    -0.000     0.000
    -0.000    -0.000     0.000
    -0.000    -0.000     0.000
    -0.000    -0.000     0.000
    -0.000    -0.000     0.000
    -0.000    -0.000     0.000
    -0.000    -0.000     0.000
    -0.000    -0.000     0.000
    -0.000    -0.000     0.000
    -0.000    -0.000     0.000
    -0.000    -0.000     0.000
    -0.000    -0.000     0.000
    -0.000    -0.000     0.000
    -0.000    -0.000     0.000
    -0.000    -0.000     0.000
    -0.000    -0.000     0.000
    -0.000    -0.000     0.000
    -0.000    -0.000     0.000
     0.000    -0.000     0.000
     0.000    -0.000     0.000
     0.000    -0.000     0.000
     0.000    -0.000     0.000
     0.000    -0.000     0.000
     0.000    -0.000     0.000
     0.000    -0.000     0.000
     0.000    -0.000     0.000
     0.000    -0.000     0.000
     0.000    -0.000     0.000
     0.000    -0.000     0.000
     0.000    -0.000     0.000
     0.000    -0.000     0.000
     0.000    -0.000     0.000
     0.000    -0.000     0.000
     0.000     0.000     0.000
     0.000     0.000     0.000
     0.000    -0.000     0.000
     0.000    -0.000     0.000
    -0.000    -0.000     0.000
    -0.000    -0.000     0.000
    -0.000    -0.000     0.000
    -0.000    -0.000     0.000
    -0.000    -0.000     0.000
    -0.000    -0.000     0.000
    -0.000    -0.000     0.000
    -0.000    -0.000     0.000
    -0.000     0.000     0.000
    -0.000     0.000     0.000
     0.000     0.000     0.000
     0.000    -0.000     0.000
     0.000    -0.000     0.000
     0.000    -0.000     0.000
     0.000    -0.000     0.000
     0.000    -0.000     0.000
     0.000    -0.000     0.000
     0.000    -0.000     0.000
     0.000    -0.000     0.000
    -0.000    -0.000     0.000
    -0.000    -0.000     0.000
    -0.000     0.000     0.000
    -0.000     0.000     0.000
    -0.000    -0.000     0.000
    -0.000    -0.000     0.000
    -0.000    -0.000     0.000
    -0.000    -0.000     0.000
    -0.000    -0.000     0.000
    -0.000    -0.000     0.000
    -0.000    -0.000     0.000
    -0.000    -0.000     0.000
    -0.000    -0.000     0.000
    -0.000    -0.000     0.000
    -0.000    -0.000     0.000
    -0.000    -0.000     0.000
    -0.000    -0.000     0.000
    -0.000    -0.000     0.000
    -0.000    -0.000     0.000
     0.000    -0.000     0.000
     0.000    -0.000     0.000
     0.000    -0.000     0.000
     0.000    -0.000     0.000
     0.000    -0.000     0.000
     0.000    -0.000     0.000
     0.000    -0.000     0.000
     0.000    -0.000     0.000
     0.000    -0.000     0.000
     0.000    -0.000     0.000
     0.000    -0.000     0.000
     0.000    -0.000     0.000
     0.000    -0.000     0.000
     0.000    -0.000     0.000
     0.000    -0.000     0.000
     0.000     0.000     0.000
     0.000     0.000     0.000
     0.000     0.000     0.000
     0.000    -0.000     0.000
     0.000    -0.000     0.000
    -0.000    -0.000     0.000
    -0.000    -0.000     0.000
    -0.000    -0.000     0.000
    -0.000    -0.000     0.000
    -0.000    -0.000     0.000
    -0.000    -0.000     0.000
    -0.000    -0.000     0.000
    -0.000    -0.000     0.000
    -0.000     0.000     0.000
     0.000    -0.000     0.000
     0.000    -0.000     0.000
     0.000    -0.000     0.000
     0.000    -0.000     0.000
     0.000    -0.000     0.000
     0.000    -0.000     0.000
     0.000    -0.000     0.000
     0.000    -0.000     0.000
    -0.000    -0.000     0.000
    -0.000    -0.000     0.000
    -0.000     0.000     0.000
    -0.000     0.000     0.000
    -0.000     0.000     0.000
    -0.000    -0.000     0.000
    -0.000    -0.000     0.000
    -0.000    -0.000     0.000
    -0.000    -0.000     0.000
    -0.000    -0.000     0.000
    -0.000    -0.000     0.000
    -0.000    -0.000     0.000
    -0.000    -0.000     0.000
    -0.000    -0.000     0.000
    -0.000    -0.000     0.000
    -0.000    -0.000     0.000
    -0.000    -0.000     0.000
    -0.000    -0.000     0.000
    -0.000    -0.000     0.000
    -0.000    -0.000     0.000
     0.000    -0.000     0.000
     0.000    -0.000     0.000
     0.000    -0.000     0.000
     0.000    -0.000     0.000
     0.000    -0.000     0.000
     0.000    -0.000     0.000
     0.000    -0.000     0.000
     0.000    -0.000     0.000
     0.000    -0.000     0.000
     0.000    -0.000     0.000
     0.000    -0.000     0.000
     0.000    -0.000     0.000
     0.000    -0.000     0.000
     0.000    -0.000     0.000
     0.000    -0.000     0.000
     0.000     0.000     0.000
     0.000     0.000     0.000
     0.000     0.000     0.000
     0.000     0.000     0.000
     0.000    -0.000     0.000
    -0.000    -0.000     0.000
    -0.000    -0.000     0.000
    -0.000    -0.000     0.000
    -0.000    -0.000     0.000
    -0.000    -0.000     0.000
    -0.000    -0.000     0.000
    -0.000    -0.000     0.000
    -0.000    -0.000     0.000
    -0.000    -0.000     0.000
     0.000    -0.000     0.000
     0.000    -0.000     0.000
     0.000    -0.000     0.000
     0.000    -0.000     0.000
     0.000    -0.000     0.000
     0.000    -0.000     0.000
     0.000    -0.000     0.000
     0.000    -0.000     0.000
    -0.000    -0.000     0.000
    -0.000     0.000     0.000
    -0.000     0.000     0.000
    -0.000     0.000     0.000
    -0.000     0.000     0.000
    -0.000    -0.000     0.000
    -0.000    -0.000     0.000
    -0.000    -0.000     0.000
    -0.000    -0.000     0.000
    -0.000    -0.000     0.000
    -0.000    -0.000     0.000
    -0.000    -0.000     0.000
    -0.000    -0.000     0.000
    -0.000    -0.000     0.000
    -0.000    -0.000     0.000
    -0.000    -0.000     0.000
    -0.000    -0.000     0.000
    -0.000    -0.000     0.000
    -0.000    -0.000     0.000
    -0.000    -0.000     0.000
     0.000    -0.000     0.000
     0.000    -0.000     0.000
     0.000    -0.000     0.000
     0.000    -0.000     0.000
     0.000    -0.000     0.000
     0.000    -0.000     0.000
     0.000    -0.000     0.000
     0.000    -0.000     0.000
     0.000    -0.000     0.000
     0.000    -0.000     0.000
     0.000    -0.000     0.000
     0.000    -0.000     0.000
     0.000    -0.000     0.000
     0.000    -0.000     0.000
     0.000    -0.000     0.000
     0.000     0.000     0.000
     0.000     0.000     0.000
     0.000     0.000     0.000
     0.000     0.000     0.000
     0.000     0.000     0.000
     0.000    -0.000     0.000
    -0.000    -0.000     0.000
    -0.000    -0.000     0.000
    -0.000    -0.000     0.000
    -0.000    -0.001     0.000
    -0.000    -0.001     0.000
    -0.000    -0.000     0.000
    -0.000    -0.000     0.000
    -0.000    -0.000     0.000
     0.000    -0.000     0.000
     0.000    -0.000     0.000
     0.000    -0.001     0.000
     0.000    -0.001     0.000
     0.000    -0.000     0.000
     0.000    -0.000     0.000
     0.000    -0.000     0.000
    -0.000    -0.000     0.000
    -0.000     0.000     0.000
    -0.000     0.000     0.000
    -0.000     0.000     0.000
    -0.000     0.000     0.000
    -0.000     0.000     0.000
    -0.000    -0.000     0.000
    -0.000    -0.000     0.000
    -0.000    -0.000     0.000
    -0.000    -0.000     0.000
    -0.000    -0.000     0.000
    -0.000    -0.000     0.000
    -0.000    -0.000     0.000
    -0.000    -0.000     0.000
    -0.000    -0.000     0.000
    -0.000    -0.000     0.000
    -0.000    -0.000     0.000
    -0.000    -0.000     0.000
    -0.000    -0.000     0.000
    -0.000    -0.000     0.000
    -0.000    -0.000     0.000
     0.000    -0.000     0.000
     0.000    -0.000     0.000
     0.000    -0.000     0.000
     0.000    -0.000     0.000
     0.000    -0.000     0.000
     0.000    -0.000     0.000
     0.000    -0.000     0.000
     0.000    -0.000     0.000
     0.000    -0.000     0.000
     0.000    -0.000     0.000
     0.000    -0.000     0.000
     0.000    -0.000     0.000
     0.000    -0.000     0.000
     0.000    -0.000     0.000
     0.000    -0.000     0.000
     0.000     0.000     0.000
     0.000     0.000     0.000
     0.000     0.000     0.000
     0.000     0.000     0.000
     0.000     0.000     0.000
     0.000    -0.000     0.000
     0.000    -0.000     0.000
     0.000    -0.000     0.000
    -0.000    -0.001     0.000
    -0.000    -0.002     0.000
    -0.001    -0.002     0.000
    -0.001    -0.001     0.000
    -0.000    -0.001     0.000
    -0.000    -0.001     0.000
     0.000    -0.001     0.000
     0.001    -0.001     0.000
     0.001    -0.002     0.000
     0.000    -0.002     0.000
     0.000    -0.001     0.000
    -0.000    -0.000     0.000
    -0.000    -0.000     0.000
    -0.000    -0.000     0.000
    -0.000     0.000     0.000
    -0.000     0.000     0.000
    -0.000     0.000     0.000
    -0.000     0.000     0.000
    -0.000     0.000     0.000
    -0.000    -0.000     0.000
    -0.000    -0.000     0.000
    -0.000    -0.000     0.000
    -0.000    -0.000     0.000
    -0.000    -0.000     0.000
    -0.000    -0.000     0.000
    -0.000    -0.000     0.000
    -0.000    -0.000     0.000
    -0.000    -0.000     0.000
    -0.000    -0.000     0.000
    -0.000    -0.000     0.000
    -0.000    -0.000     0.000
    -0.000    -0.000     0.000
    -0.000    -0.000     0.000
    -0.000    -0.000     0.000
     0.000    -0.000     0.000
     0.000    -0.000     0.000
     0.000    -0.000     0.000
     0.000    -0.000     0.000
     0.000    -0.000     0.000
     0.000    -0.000     0.000
     0.000    -0.000     0.000
     0.000    -0.000     0.000
     0.000    -0.000     0.000
     0.000    -0.000     0.000
     0.000    -0.000     0.000
     0.000    -0.000     0.000
     0.000    -0.000     0.000
     0.000    -0.000     0.000
     0.000    -0.000     0.000
     0.000     0.000     0.000
     0.000     0.000     0.000
     0.000     0.000     0.000
     0.000     0.000     0.000
     0.000     0.000     0.000
     0.000    -0.000     0.000
     0.000    -0.000     0.000
     0.000    -0.001     0.000
    -0.000    -0.003     0.000
    -0.002    -0.005     0.000
    -0.002    -0.005     0.000
    -0.002    -0.003     0.000
    -0.001    -0.002     0.000
    -0.000    -0.002     0.000
     0.001    -0.002     0.000
     0.002    -0.003     0.000
     0.002    -0.005     0.000
     0.002    -0.005     0.000
     0.000    -0.003     0.000
    -0.000    -0.001     0.000
    -0.000    -0.000     0.000
    -0.000    -0.000     0.000
    -0.000     0.000     0.000
    -0.000     0.000     0.000
    -0.000     0.000     0.000
    -0.000     0.000     0.000
    -0.000     0.000     0.000
    -0.000    -0.000     0.000
    -0.000    -0.000     0.000
    -0.000    -0.000     0.000
    -0.000    -0.000     0.000
    -0.000    -0.000     0.000
    -0.000    -0.000     0.000
    -0.000    -0.000     0.000
    -0.000    -0.000     0.000
    -0.000    -0.000     0.000
    -0.000    -0.000     0.000
    -0.000    -0.000     0.000
    -0.000    -0.000     0.000
    -0.000    -0.000     0.000
    -0.000    -0.000     0.000
    -0.000    -0.000     0.000
     0.000    -0.000     0.000
     0.000    -0.000     0.000
     0.000    -0.000     0.000
     0.000    -0.000     0.000
     0.000    -0.000     0.000
     0.000    -0.000     0.000
     0.000    -0.000     0.000
     0.000    -0.000     0.000
     0.000    -0.000     0.000
     0.000    -0.000     0.000
     0.000    -0.000     0.000
     0.000    -0.000     0.000
     0.000    -0.000     0.000
     0.000    -0.000     0.000
     0.000    -0.000     0.000
     0.000    -0.000     0.000
     0.000     0.000     0.000
     0.000     0.000     0.000
     0.000     0.000     0.000
     0.000     0.000     0.000
     0.001    -0.000     0.000
     0.002    -0.000     0.000
     0.002    -0.001     0.000
    -0.001    -0.004     0.000
    -0.006    -0.009     0.000
    -0.007    -0.009     0.000
    -0.003    -0.006     0.000
     0.000    -0.007     0.000
    -0.000    -0.008     0.000
    -0.000    -0.007     0.000
     0.003    -0.006     0.000
     0.007    -0.009     0.000
     0.006    -0.009     0.000
     0.001    -0.004     0.000
    -0.002    -0.001     0.000
    -0.002    -0.000     0.000
    -0.001    -0.000     0.000
    -0.000     0.000     0.000
    -0.000     0.000     0.000
    -0.000     0.000     0.000
    -0.000     0.000     0.000
    -0.000    -0.000     0.000
    -0.000    -0.000     0.000
    -0.000    -0.000     0.000
    -0.000    -0.000     0.000
    -0.000    -0.000     0.000
    -0.000    -0.000     0.000
    -0.000    -0.000     0.000
    -0.000    -0.000     0.000
    -0.000    -0.000     0.000
    -0.000    -0.000     0.000
    -0.000    -0.000     0.000
    -0.000    -0.000     0.000
    -0.000    -0.000     0.000
    -0.000    -0.000     0.000
    -0.000    -0.000     0.000
    -0.000    -0.000     0.000
     0.000    -0.000     0.000
     0.000    -0.000     0.000
     0.000    -0.000     0.000
     0.000    -0.000     0.000
     0.000    -0.000     0.000
     0.000    -0.000     0.000
     0.000    -0.000     0.000
     0.000    -0.000     0.000
     0.000    -0.000     0.000
     0.000    -0.000     0.000
     0.000    -0.000     0.000
    -0.000    -0.000     0.000
    -0.000    -0.000     0.000
    -0.000    -0.000     0.000
    -0.000    -0.000     0.000
    -0.000    -0.000     0.000
     0.000     0.000     0.000
     0.000     0.000     0.000
     0.000     0.000     0.000
     0.001     0.000     0.000
     0.002    -0.000     0.000
     0.004     0.000     0.000
     0.007     0.001     0.000
     0.003    -0.000     0.000
    -0.008    -0.006     0.000
    -0.011    -0.006     0.000
     0.000    -0.007     0.000
     0.006    -0.019     0.000
    -0.000    -0.028     0.000
    -0.006    -0.019     0.000
    -0.000    -0.007     0.000
     0.011    -0.006     0.000
     0.008    -0.006     0.000
    -0.003    -0.000     0.000
    -0.007     0.001     0.000
    -0.004     0.000     0.000
    -0.002    -0.000     0.000
    -0.001     0.000     0.000
    -0.000     0.000     0.000
    -0.000     0.000     0.000
    -0.000     0.000     0.000
     0.000    -0.000     0.000
     0.000    -0.000     0.000
     0.000    -0.000     0.000
     0.000    -0.000     0.000
     0.000    -0.000     0.000
    -0.000    -0.000     0.000
    -0.000    -0.000     0.000
    -0.000    -0.000     0.000
    -0.000    -0.000     0.000
    -0.000    -0.000     0.000
    -0.000    -0.000     0.000
    -0.000    -0.000     0.000
    -0.000    -0.000     0.000
    -0.000    -0.000     0.000
    -0.000    -0.000     0.000
    -0.000    -0.000     0.000
     0.000    -0.000     0.000
     0.000    -0.000     0.000
     0.000    -0.000     0.000
     0.000    -0.000     0.000
     0.000    -0.000     0.000
     0.000    -0.000     0.000
     0.000    -0.000     0.000
     0.000    -0.000     0.000
     0.000    -0.000     0.000
     0.000    -0.000     0.000
     0.000    -0.000     0.000
     0.000    -0.000     0.000
    -0.000    -0.000     0.000
    -0.000    -0.000     0.000
    -0.000    -0.000     0.000
    -0.000    -0.000     0.000
    -0.000    -0.000     0.000
     0.000     0.000     0.000
     0.000     0.000     0.000
     0.001     0.000     0.000
     0.003     0.000     0.000
     0.007     0.001     0.000
     0.013     0.006     0.000
     0.009     0.009     0.000
    -0.007     0.009     0.000
    -0.009     0.013     0.000
     0.013    -0.000     0.000
     0.018    -0.043     0.000
     0.000    -0.068     0.000
    -0.018    -0.043     0.000
    -0.013    -0.000     0.000
     0.009     0.013     0.000
     0.007     0.009     0.000
    -0.009     0.009     0.000
    -0.013     0.006     0.000
    -0.007     0.001     0.000
    -0.003     0.000     0.000
    -0.001     0.000     0.000
    -0.000     0.000     0.000
    -0.000     0.000     0.000
     0.000    -0.000     0.000
     0.000    -0.000     0.000
     0.000    -0.000     0.000
     0.000    -0.000     0.000
     0.000    -0.000     0.000
    -0.000    -0.000     0.000
    -0.000    -0.000     0.000
    -0.000    -0.000     0.000
    -0.000    -0.000     0.000
    -0.000    -0.000     0.000
    -0.000    -0.000     0.000
    -0.000    -0.000     0.000
    -0.000    -0.000     0.000
    -0.000    -0.000     0.000
    -0.000    -0.000     0.000
    -0.000    -0.000     0.000
    -0.000    -0.000     0.000
     0.000    -0.000     0.000
     0.000    -0.000     0.000
     0.000    -0.000     0.000
     0.000    -0.000     0.000
     0.000    -0.000     0.000
     0.000    -0.000     0.000
     0.000    -0.000     0.000
     0.000    -0.000     0.000
     0.000    -0.000     0.000
     0.000     0.000     0.000
     0.000    -0.000     0.000
     0.000    -0.000     0.000
    -0.000    -0.000     0.000
    -0.000    -0.000     0.000
    -0.000    -0.000     0.000
    -0.000    -0.000     0.000