# vtk DataFile Version 3.0
Current density vector field
ASCII

DATASET STRUCTURED_GRID
DIMENSIONS      33     33      1
POINTS       1089 float
    -4.233    -4.233     0.529
    -4.233    -3.969     0.529
    -4.233    -3.704     0.529
    -4.233    -3.440     0.529
    -4.233    -3.175     0.529
    -4.233    -2.910     0.529
    -4.233    -2.646     0.529
    -4.233    -2.381     0.529
    -4.233    -2.117     0.529
    -4.233    -1.852     0.529
    -4.233    -1.588     0.529
    -4.233    -1.323     0.529
    -4.233    -1.058     0.529
    -4.233    -0.794     0.529
    -4.233    -0.529     0.529
    -4.233    -0.265     0.529
    -4.233     0.000     0.529
    -4.233     0.265     0.529
    -4.233     0.529     0.529
    -4.233     0.794     0.529
    -4.233     1.058     0.529
    -4.233     1.323     0.529
    -4.233     1.588     0.529
    -4.233     1.852     0.529
    -4.233     2.117     0.529
    -4.233     2.381     0.529
    -4.233     2.646     0.529
    -4.233     2.910     0.529
    -4.233     3.175     0.529
    -4.233     3.440     0.529
    -4.233     3.704     0.529
    -4.233     3.969     0.529
    -4.233     4.233     0.529
    -3.969    -4.233     0.529
    -3.969    -3.969     0.529
    -3.969    -3.704     0.529
    -3.969    -3.440     0.529
    -3.969    -3.175     0.529
    -3.969    -2.910     0.529
    -3.969    -2.646     0.529
    -3.969    -2.381     0.529
    -3.969    -2.117     0.529
    -3.969    -1.852     0.529
    -3.969    -1.588     0.529
    -3.969    -1.323     0.529
    -3.969    -1.058     0.529
    -3.969    -0.794     0.529
    -3.969    -0.529     0.529
    -3.969    -0.265     0.529
    -3.969     0.000     0.529
    -3.969     0.265     0.529
    -3.969     0.529     0.529
    -3.969     0.794     0.529
    -3.969     1.058     0.529
    -3.969     1.323     0.529
    -3.969     1.588     0.529
    -3.969     1.852     0.529
    -3.969     2.117     0.529
    -3.969     2.381     0.529
    -3.969     2.646     0.529
    -3.969     2.910     0.529
    -3.969     3.175     0.529
    -3.969     3.440     0.529
    -3.969     3.704     0.529
    -3.969     3.969     0.529
    -3.969     4.233     0.529
    -3.704    -4.233     0.529
    -3.704    -3.969     0.529
    -3.704    -3.704     0.529
    -3.704    -3.440     0.529
    -3.704    -3.175     0.529
    -3.704    -2.910     0.529
    -3.704    -2.646     0.529
    -3.704    -2.381     0.529
    -3.704    -2.117     0.529
    -3.704    -1.852     0.529
    -3.704    -1.588     0.529
    -3.704    -1.323     0.529
    -3.704    -1.058     0.529
    -3.704    -0.794     0.529
    -3.704    -0.529     0.529
    -3.704    -0.265     0.529
    -3.704     0.000     0.529
    -3.704     0.265     0.529
    -3.704     0.529     0.529
    -3.704     0.794     0.529
    -3.704     1.058     0.529
    -3.704     1.323     0.529
    -3.704     1.588     0.529
    -3.704     1.852     0.529
    -3.704     2.117     0.529
    -3.704     2.381     0.529
    -3.704     2.646     0.529
    -3.704     2.910     0.529
    -3.704     3.175     0.529
    -3.704     3.440     0.529
    -3.704     3.704     0.529
    -3.704     3.969     0.529
    -3.704     4.233     0.529
    -3.440    -4.233     0.529
    -3.440    -3.969     0.529
    -3.440    -3.704     0.529
    -3.440    -3.440     0.529
    -3.440    -3.175     0.529
    -3.440    -2.910     0.529
    -3.440    -2.646     0.529
    -3.440    -2.381     0.529
    -3.440    -2.117     0.529
    -3.440    -1.852     0.529
    -3.440    -1.588     0.529
    -3.440    -1.323     0.529
    -3.440    -1.058     0.529
    -3.440    -0.794     0.529
    -3.440    -0.529     0.529
    -3.440    -0.265     0.529
    -3.440     0.000     0.529
    -3.440     0.265     0.529
    -3.440     0.529     0.529
    -3.440     0.794     0.529
    -3.440     1.058     0.529
    -3.440     1.323     0.529
    -3.440     1.588     0.529
    -3.440     1.852     0.529
    -3.440     2.117     0.529
    -3.440     2.381     0.529
    -3.440     2.646     0.529
    -3.440     2.910     0.529
    -3.440     3.175     0.529
    -3.440     3.440     0.529
    -3.440     3.704     0.529
    -3.440     3.969     0.529
    -3.440     4.233     0.529
    -3.175    -4.233     0.529
    -3.175    -3.969     0.529
    -3.175    -3.704     0.529
    -3.175    -3.440     0.529
    -3.175    -3.175     0.529
    -3.175    -2.910     0.529
    -3.175    -2.646     0.529
    -3.175    -2.381     0.529
    -3.175    -2.117     0.529
    -3.175    -1.852     0.529
    -3.175    -1.588     0.529
    -3.175    -1.323     0.529
    -3.175    -1.058     0.529
    -3.175    -0.794     0.529
    -3.175    -0.529     0.529
    -3.175    -0.265     0.529
    -3.175     0.000     0.529
    -3.175     0.265     0.529
    -3.175     0.529     0.529
    -3.175     0.794     0.529
    -3.175     1.058     0.529
    -3.175     1.323     0.529
    -3.175     1.588     0.529
    -3.175     1.852     0.529
    -3.175     2.117     0.529
    -3.175     2.381     0.529
    -3.175     2.646     0.529
    -3.175     2.910     0.529
    -3.175     3.175     0.529
    -3.175     3.440     0.529
    -3.175     3.704     0.529
    -3.175     3.969     0.529
    -3.175     4.233     0.529
    -2.910    -4.233     0.529
    -2.910    -3.969     0.529
    -2.910    -3.704     0.529
    -2.910    -3.440     0.529
    -2.910    -3.175     0.529
    -2.910    -2.910     0.529
    -2.910    -2.646     0.529
    -2.910    -2.381     0.529
    -2.910    -2.117     0.529
    -2.910    -1.852     0.529
    -2.910    -1.588     0.529
    -2.910    -1.323     0.529
    -2.910    -1.058     0.529
    -2.910    -0.794     0.529
    -2.910    -0.529     0.529
    -2.910    -0.265     0.529
    -2.910     0.000     0.529
    -2.910     0.265     0.529
    -2.910     0.529     0.529
    -2.910     0.794     0.529
    -2.910     1.058     0.529
    -2.910     1.323     0.529
    -2.910     1.588     0.529
    -2.910     1.852     0.529
    -2.910     2.117     0.529
    -2.910     2.381     0.529
    -2.910     2.646     0.529
    -2.910     2.910     0.529
    -2.910     3.175     0.529
    -2.910     3.440     0.529
    -2.910     3.704     0.529
    -2.910     3.969     0.529
    -2.910     4.233     0.529
    -2.646    -4.233     0.529
    -2.646    -3.969     0.529
    -2.646    -3.704     0.529
    -2.646    -3.440     0.529
    -2.646    -3.175     0.529
    -2.646    -2.910     0.529
    -2.646    -2.646     0.529
    -2.646    -2.381     0.529
    -2.646    -2.117     0.529
    -2.646    -1.852     0.529
    -2.646    -1.588     0.529
    -2.646    -1.323     0.529
    -2.646    -1.058     0.529
    -2.646    -0.794     0.529
    -2.646    -0.529     0.529
    -2.646    -0.265     0.529
    -2.646     0.000     0.529
    -2.646     0.265     0.529
    -2.646     0.529     0.529
    -2.646     0.794     0.529
    -2.646     1.058     0.529
    -2.646     1.323     0.529
    -2.646     1.588     0.529
    -2.646     1.852     0.529
    -2.646     2.117     0.529
    -2.646     2.381     0.529
    -2.646     2.646     0.529
    -2.646     2.910     0.529
    -2.646     3.175     0.529
    -2.646     3.440     0.529
    -2.646     3.704     0.529
    -2.646     3.969     0.529
    -2.646     4.233     0.529
    -2.381    -4.233     0.529
    -2.381    -3.969     0.529
    -2.381    -3.704     0.529
    -2.381    -3.440     0.529
    -2.381    -3.175     0.529
    -2.381    -2.910     0.529
    -2.381    -2.646     0.529
    -2.381    -2.381     0.529
    -2.381    -2.117     0.529
    -2.381    -1.852     0.529
    -2.381    -1.588     0.529
    -2.381    -1.323     0.529
    -2.381    -1.058     0.529
    -2.381    -0.794     0.529
    -2.381    -0.529     0.529
    -2.381    -0.265     0.529
    -2.381     0.000     0.529
    -2.381     0.265     0.529
    -2.381     0.529     0.529
    -2.381     0.794     0.529
    -2.381     1.058     0.529
    -2.381     1.323     0.529
    -2.381     1.588     0.529
    -2.381     1.852     0.529
    -2.381     2.117     0.529
    -2.381     2.381     0.529
    -2.381     2.646     0.529
    -2.381     2.910     0.529
    -2.381     3.175     0.529
    -2.381     3.440     0.529
    -2.381     3.704     0.529
    -2.381     3.969     0.529
    -2.381     4.233     0.529
    -2.117    -4.233     0.529
    -2.117    -3.969     0.529
    -2.117    -3.704     0.529
    -2.117    -3.440     0.529
    -2.117    -3.175     0.529
    -2.117    -2.910     0.529
    -2.117    -2.646     0.529
    -2.117    -2.381     0.529
    -2.117    -2.117     0.529
    -2.117    -1.852     0.529
    -2.117    -1.588     0.529
    -2.117    -1.323     0.529
    -2.117    -1.058     0.529
    -2.117    -0.794     0.529
    -2.117    -0.529     0.529
    -2.117    -0.265     0.529
    -2.117     0.000     0.529
    -2.117     0.265     0.529
    -2.117     0.529     0.529
    -2.117     0.794     0.529
    -2.117     1.058     0.529
    -2.117     1.323     0.529
    -2.117     1.588     0.529
    -2.117     1.852     0.529
    -2.117     2.117     0.529
    -2.117     2.381     0.529
    -2.117     2.646     0.529
    -2.117     2.910     0.529
    -2.117     3.175     0.529
    -2.117     3.440     0.529
    -2.117     3.704     0.529
    -2.117     3.969     0.529
    -2.117     4.233     0.529
    -1.852    -4.233     0.529
    -1.852    -3.969     0.529
    -1.852    -3.704     0.529
    -1.852    -3.440     0.529
    -1.852    -3.175     0.529
    -1.852    -2.910     0.529
    -1.852    -2.646     0.529
    -1.852    -2.381     0.529
    -1.852    -2.117     0.529
    -1.852    -1.852     0.529
    -1.852    -1.588     0.529
    -1.852    -1.323     0.529
    -1.852    -1.058     0.529
    -1.852    -0.794     0.529
    -1.852    -0.529     0.529
    -1.852    -0.265     0.529
    -1.852     0.000     0.529
    -1.852     0.265     0.529
    -1.852     0.529     0.529
    -1.852     0.794     0.529
[...]
POINT_DATA       1089
VECTORS point_vectors float
     0.000     0.000     0.000
     0.000    -0.000     0.000
     0.000    -0.000     0.000
    -0.000    -0.000     0.000
    -0.000    -0.000     0.000
    -0.000    -0.000     0.000
    -0.000    -0.000     0.000
    -0.000    -0.000     0.000
    -0.000    -0.000     0.000
    -0.000     0.000     0.000
    -0.000     0.000     0.000
    -0.000     0.000     0.000
    -0.000     0.000     0.000
    -0.000     0.000     0.000
     0.000     0.000     0.000
     0.000     0.000     0.000
     0.000     0.000     0.000
     0.000    -0.000     0.000
     0.000    -0.000     0.000
     0.000    -0.000     0.000
     0.000    -0.000     0.000
    -0.000    -0.000     0.000
    -0.000    -0.000     0.000
    -0.000    -0.000     0.000
    -0.000     0.000     0.000
    -0.000     0.000     0.000
    -0.000     0.000     0.000
    -0.000     0.000     0.000
     0.000     0.000     0.000
     0.000     0.000     0.000
     0.000     0.000     0.000
     0.000     0.000     0.000
     0.000     0.000     0.000
     0.000     0.000     0.000
     0.000    -0.000     0.000
     0.000    -0.000     0.000
     0.000    -0.000     0.000
    -0.000    -0.000     0.000
    -0.000    -0.000     0.000
    -0.000    -0.000     0.000
    -0.000    -0.000     0.000
    -0.000    -0.000     0.000
    -0.000    -0.000     0.000
    -0.000     0.000     0.000
    -0.000     0.000     0.000
    -0.000     0.000     0.000
    -0.000     0.000     0.000
     0.000     0.000     0.000
     0.000     0.000     0.000
     0.000     0.000     0.000
     0.000    -0.000     0.000
     0.000    -0.000     0.000
     0.000    -0.000     0.000
     0.000    -0.000     0.000
    -0.000    -0.000     0.000
    -0.000    -0.000     0.000
    -0.000    -0.000     0.000
    -0.000     0.000     0.000
    -0.000     0.000     0.000
    -0.000     0.000     0.000
    -0.000     0.000     0.000
     0.000     0.000     0.000
     0.000     0.000     0.000
     0.000     0.000     0.000
     0.000     0.000     0.000
     0.000     0.000     0.000
     0.000     0.000     0.000
     0.000     0.000     0.000
     0.000    -0.000     0.000
     0.000    -0.000     0.000
     0.000    -0.000     0.000
    -0.000    -0.000     0.000
    -0.000    -0.000     0.000
    -0.000    -0.000     0.000
    -0.000    -0.000     0.000
    -0.000    -0.000     0.000
    -0.000    -0.000     0.000
    -0.000     0.000     0.000
    -0.000     0.000     0.000
    -0.000     0.000     0.000
     0.000     0.000     0.000
     0.000     0.000     0.000
     0.001    -0.000     0.000
     0.001    -0.000     0.000
     0.001    -0.000     0.000
     0.000    -0.001     0.000
    -0.000    -0.000     0.000
    -0.000    -0.000     0.000
    -0.000    -0.000     0.000
    -0.000    -0.000     0.000
    -0.000     0.000     0.000
    -0.000     0.000     0.000
    -0.000     0.000     0.000
    -0.000     0.000     0.000
     0.000     0.000     0.000
     0.000     0.000     0.000
     0.000     0.000     0.000
     0.000     0.000     0.000
     0.000     0.000     0.000
     0.000     0.000     0.000
     0.000     0.000     0.000
     0.000     0.000     0.000
     0.000    -0.000     0.000
     0.000    -0.000     0.000
     0.000    -0.000     0.000
    -0.000    -0.000     0.000
    -0.000    -0.000     0.000
    -0.000    -0.000     0.000
    -0.000    -0.000     0.000
    -0.000    -0.000     0.000
    -0.000    -0.000     0.000
    -0.000     0.000     0.000
    -0.000     0.000     0.000
     0.000     0.000     0.000
     0.001     0.000     0.000
     0.001    -0.000     0.000
     0.001    -0.001     0.000
     0.001    -0.001     0.000
     0.000    -0.002     0.000
    -0.000    -0.001     0.000
    -0.001    -0.001     0.000
    -0.001    -0.000     0.000
    -0.000     0.000     0.000
    -0.000     0.000     0.000
    -0.000     0.000     0.000
    -0.000     0.000     0.000
     0.000     0.000     0.000
     0.000     0.000     0.000
     0.000     0.000     0.000
     0.000     0.000     0.000
     0.000     0.000     0.000
     0.000     0.000     0.000
     0.000     0.000     0.000
     0.000     0.000     0.000
     0.000     0.000     0.000
     0.000     0.000     0.000
     0.000    -0.000     0.000
     0.000    -0.000     0.000
     0.000    -0.000     0.000
    -0.000    -0.000     0.000
    -0.000    -0.001     0.000
    -0.000    -0.001     0.000
    -0.001    -0.001     0.000
    -0.001    -0.000     0.000
    -0.001    -0.000     0.000
    -0.000     0.000     0.000
     0.000     0.000     0.000
     0.001    -0.000     0.000
     0.002    -0.001     0.000
     0.003    -0.003     0.000
     0.002    -0.004     0.000
     0.000    -0.005     0.000
    -0.001    -0.004     0.000
    -0.002    -0.002     0.000
    -0.001    -0.000     0.000
    -0.001     0.000     0.000
    -0.000     0.000     0.000
    -0.000     0.000     0.000
    -0.000     0.000     0.000
     0.000     0.000     0.000
     0.000     0.000     0.000
     0.000     0.000     0.000
     0.000     0.000     0.000
     0.000     0.000     0.000
     0.000     0.000     0.000
     0.000     0.000     0.000
     0.000     0.000     0.000
     0.000     0.000     0.000
     0.000     0.000     0.000
     0.000     0.000     0.000
     0.000    -0.000     0.000
     0.000    -0.000     0.000
     0.000    -0.001     0.000
     0.000    -0.001     0.000
    -0.000    -0.002     0.000
    -0.001    -0.002     0.000
    -0.001    -0.002     0.000
    -0.001    -0.001     0.000
    -0.001    -0.000     0.000
     0.001    -0.000     0.000
     0.002    -0.001     0.000
     0.004    -0.003     0.000
     0.005    -0.006     0.000
     0.003    -0.010     0.000
    -0.001    -0.011     0.000
    -0.004    -0.008     0.000
    -0.004    -0.003     0.000
    -0.003    -0.001     0.000
    -0.001     0.000     0.000
    -0.001     0.000     0.000
    -0.000     0.000     0.000
     0.000     0.000     0.000
     0.000     0.000     0.000
     0.000     0.000     0.000
     0.000     0.000     0.000
     0.000     0.000     0.000
     0.000     0.000     0.000
     0.000     0.000     0.000
     0.000     0.000     0.000
     0.000     0.000     0.000
     0.000     0.000     0.000
     0.000     0.000     0.000
     0.000     0.000     0.000
     0.000    -0.000     0.000
     0.001    -0.000     0.000
     0.001    -0.001     0.000
     0.001    -0.003     0.000
     0.000    -0.005     0.000
    -0.001    -0.006     0.000
    -0.002    -0.005     0.000
    -0.002    -0.004     0.000
    -0.001    -0.002     0.000
     0.001    -0.002     0.000
     0.004    -0.003     0.000
     0.008    -0.007     0.000
     0.010    -0.013     0.000
     0.005    -0.019     0.000
    -0.004    -0.020     0.000
    -0.010    -0.013     0.000
    -0.008    -0.005     0.000
    -0.005    -0.001     0.000
    -0.002     0.000     0.000
    -0.001     0.001     0.000
    -0.000     0.000     0.000
     0.000     0.000     0.000
     0.000     0.000     0.000
     0.000     0.000     0.000
     0.000     0.000     0.000
     0.000     0.000     0.000
     0.000     0.000     0.000
     0.000    -0.000     0.000
    -0.000     0.000     0.000
     0.000     0.000     0.000
     0.000     0.000     0.000
     0.000     0.000     0.000
     0.000     0.000     0.000
     0.001     0.000     0.000
     0.001    -0.000     0.000
     0.003    -0.002     0.000
     0.004    -0.005     0.000
     0.004    -0.010     0.000
     0.001    -0.013     0.000
    -0.003    -0.012     0.000
    -0.005    -0.010     0.000
    -0.003    -0.007     0.000
     0.001    -0.007     0.000
     0.007    -0.009     0.000
     0.014    -0.013     0.000
     0.018    -0.021     0.000
     0.010    -0.026     0.000
    -0.010    -0.023     0.000
    -0.018    -0.014     0.000
    -0.014    -0.005     0.000
    -0.007    -0.001     0.000
    -0.003     0.000     0.000
    -0.001     0.001     0.000
     0.000     0.000     0.000
     0.000     0.000     0.000
     0.000     0.000     0.000
     0.000    -0.000     0.000
     0.000    -0.000     0.000
     0.000    -0.000     0.000
     0.000    -0.000     0.000
     0.000    -0.000     0.000
    -0.000     0.000     0.000
    -0.000     0.000     0.000
     0.000     0.000     0.000
     0.000     0.000     0.000
     0.000     0.000     0.000
     0.001     0.000     0.000
     0.003     0.000     0.000
     0.006    -0.002     0.000
     0.010    -0.007     0.000
     0.011    -0.015     0.000
     0.005    -0.022     0.000
    -0.005    -0.024     0.000
    -0.009    -0.021     0.000
    -0.005    -0.019     0.000
     0.002    -0.020     0.000
     0.011    -0.023     0.000
     0.021    -0.026     0.000
     0.027    -0.030     0.000
     0.011    -0.028     0.000
    -0.020    -0.018     0.000
    -0.029    -0.009     0.000
    -0.019    -0.003     0.000
    -0.009    -0.001     0.000
    -0.003     0.000     0.000
    -0.001     0.000     0.000
     0.000     0.000     0.000
     0.000    -0.000     0.000
     0.000    -0.000     0.000
     0.000    -0.000     0.000
     0.000    -0.000     0.000
     0.000    -0.000     0.000
     0.000    -0.000     0.000
     0.000    -0.000     0.000
    -0.000     0.000     0.000
    -0.000     0.000     0.000
    -0.000     0.000     0.000
     0.000     0.000     0.000
     0.000     0.000     0.000
     0.001     0.001     0.000
     0.003     0.001     0.000
     0.008    -0.000     0.000
     0.015    -0.004     0.000
     0.020    -0.012     0.000
     0.012    -0.022     0.000
    -0.005    -0.033     0.000
    -0.012    -0.037     0.000
    -0.006    -0.040     0.000
     0.006    -0.048     0.000
     0.016    -0.053     0.000
     0.024    -0.050     0.000
     0.023    -0.042     0.000
     0.000    -0.031     0.000
    -0.033    -0.017     0.000
    -0.039    -0.008     0.000
    -0.024    -0.004     0.000
    -0.010    -0.002     0.000
    -0.003    -0.001     0.000
    -0.001    -0.001     0.000
     0.000    -0.001     0.000
     0.001    -0.001     0.000
     0.000    -0.001     0.000
     0.000    -0.000     0.000
     0.000    -0.000     0.000
     0.000    -0.000     0.000
     0.000    -0.000     0.000
     0.000    -0.000     0.000
    -0.000     0.000     0.000
    -0.000     0.000     0.000
    -0.000     0.000     0.000
    -0.000     0.000     0.000
     0.000     0.001     0.000
     0.001     0.001     0.000
     0.003     0.001     0.000
     0.008     0.002     0.000
     0.018     0.001     0.000
     0.028    -0.001     0.000
     0.026    -0.008     0.000
     0.007    -0.027     0.000
    -0.005    -0.045     0.000
     0.003    -0.060     0.000
     0.015    -0.080     0.000
     0.020    -0.089     0.000
     0.013    -0.081     0.000
     0.000    -0.060     0.000
    -0.015    -0.041     0.000
    -0.040    -0.029     0.000
    -0.046    -0.020     0.000
    -0.030    -0.014     0.000
    -0.013    -0.009     0.000
    -0.004    -0.005     0.000
    -0.001    -0.004     0.000
    -0.000    -0.004     0.000
     0.000    -0.003     0.000
     0.000    -0.002     0.000
     0.000    -0.001     0.000
     0.000    -0.001     0.000
     0.000    -0.000     0.000
    -0.000    -0.000     0.000
    -0.000    -0.000     0.000
    -0.000     0.000     0.000
    -0.000     0.000     0.000
    -0.000     0.000     0.000
    -0.000     0.000     0.000
    -0.000     0.001     0.000
     0.001     0.001     0.000
     0.002     0.002     0.000
     0.007     0.003     0.000
     0.017     0.005     0.000
     0.031     0.008     0.000
     0.040     0.005     0.000
     0.031    -0.015     0.000
     0.021    -0.039     0.000
     0.031    -0.065     0.000
     0.029    -0.088     0.000
     0.018    -0.087     0.000
     0.003    -0.082     0.000
    -0.017    -0.071     0.000
    -0.024    -0.064     0.000
    -0.046    -0.061     0.000
    -0.058    -0.048     0.000
    -0.043    -0.035     0.000
    -0.021    -0.023     0.000
    -0.007    -0.015     0.000
    -0.002    -0.012     0.000
    -0.002    -0.009     0.000
    -0.002    -0.006     0.000
    -0.001    -0.004     0.000
    -0.001    -0.002     0.000
    -0.000    -0.001     0.000
    -0.000    -0.000     0.000
    -0.000    -0.000     0.000
    -0.000    -0.000     0.000
    -0.000    -0.000     0.000
    -0.000    -0.000     0.000
    -0.000     0.000     0.000
    -0.000     0.000     0.000
    -0.000     0.000     0.000
     0.000     0.000     0.000
     0.001     0.001     0.000
     0.005     0.002     0.000
     0.015     0.004     0.000
     0.032     0.006     0.000
     0.050     0.002     0.000
     0.051    -0.019     0.000
     0.044    -0.044     0.000
     0.044    -0.055     0.000
     0.025    -0.050     0.000
     0.008    -0.031     0.000
    -0.001    -0.026     0.000
    -0.010    -0.035     0.000
    -0.023    -0.050     0.000
    -0.052    -0.064     0.000
    -0.071    -0.067     0.000
    -0.059    -0.056     0.000
    -0.029    -0.040     0.000
    -0.011    -0.031     0.000
    -0.006    -0.024     0.000
    -0.007    -0.017     0.000
    -0.007    -0.010     0.000
    -0.005    -0.005     0.000
    -0.002    -0.002     0.000
    -0.001    -0.001     0.000
    -0.000    -0.000     0.000
    -0.000    -0.000     0.000
    -0.000    -0.000     0.000
    -0.000    -0.000     0.000
    -0.000    -0.000     0.000
    -0.000    -0.000     0.000
    -0.000    -0.000     0.000
    -0.000    -0.000     0.000
    -0.000    -0.001     0.000
     0.001    -0.001     0.000
     0.005    -0.001     0.000
     0.015    -0.002     0.000
     0.037    -0.005     0.000
     0.065    -0.013     0.000
     0.077    -0.034     0.000
     0.060    -0.047     0.000
     0.030    -0.031     0.000
     0.006    -0.005     0.000
    -0.004     0.016     0.000
    -0.002     0.018     0.000
     0.003     0.008     0.000
    -0.001    -0.004     0.000
    -0.029    -0.028     0.000
    -0.066    -0.053     0.000
    -0.069    -0.054     0.000
    -0.036    -0.046     0.000
    -0.016    -0.041     0.000
    -0.013    -0.032     0.000
    -0.016    -0.020     0.000
    -0.016    -0.011     0.000
    -0.010    -0.005     0.000
    -0.005    -0.002     0.000
    -0.002    -0.001     0.000
    -0.001    -0.000     0.000
    -0.000    -0.000     0.000
    -0.000     0.000     0.000
    -0.000    -0.000     0.000
    -0.000    -0.000     0.000
    -0.000    -0.000     0.000
    -0.000    -0.001     0.000
     0.000    -0.001     0.000
     0.001    -0.002     0.000
     0.002    -0.004     0.000
     0.006    -0.006     0.000
     0.018    -0.010     0.000
     0.045    -0.017     0.000
     0.081    -0.026     0.000
     0.090    -0.032     0.000
     0.051    -0.024     0.000
     0.003    -0.004     0.000
    -0.012     0.011     0.000
    -0.008     0.020     0.000
    -0.001     0.020     0.000
     0.010     0.018     0.000
     0.017     0.016     0.000
    -0.002     0.000     0.000
    -0.050    -0.025     0.000
    -0.071    -0.028     0.000
    -0.042    -0.027     0.000
    -0.025    -0.024     0.000
    -0.021    -0.014     0.000
    -0.024    -0.006     0.000
    -0.022    -0.003     0.000
    -0.013    -0.001     0.000
    -0.006     0.000     0.000
    -0.002     0.000     0.000
    -0.001     0.000     0.000
    -0.000     0.000     0.000
    -0.000     0.000     0.000
    -0.000    -0.000     0.000
    -0.000    -0.000     0.000
     0.000    -0.001     0.000
     0.000    -0.001     0.000
     0.001    -0.002     0.000
     0.003    -0.004     0.000
     0.006    -0.008     0.000
     0.011    -0.014     0.000
     0.022    -0.021     0.000
     0.047    -0.026     0.000
     0.082    -0.026     0.000
     0.086    -0.021     0.000
     0.031    -0.008     0.000
    -0.016     0.005     0.000
    -0.020     0.009     0.000
    -0.009     0.009     0.000
    -0.000     0.008     0.000
     0.009     0.009     0.000
     0.018     0.011     0.000
     0.008     0.004     0.000
    -0.036    -0.008     0.000
    -0.067    -0.014     0.000
    -0.050    -0.005     0.000
    -0.035     0.012     0.000
    -0.028     0.019     0.000
    -0.025     0.015     0.000
    -0.020     0.008     0.000
    -0.011     0.004     0.000
    -0.005     0.002     0.000
    -0.002     0.001     0.000
    -0.001     0.001     0.000
    -0.000     0.000     0.000
    -0.000     0.000     0.000
     0.000    -0.000     0.000
     0.000    -0.000     0.000
     0.000    -0.001     0.000
     0.001    -0.001     0.000
     0.003    -0.003     0.000
     0.006    -0.006     0.000
     0.012    -0.011     0.000
     0.018    -0.021     0.000
     0.027    -0.030     0.000
     0.043    -0.029     0.000
     0.069    -0.011     0.000
     0.078     0.000     0.000
     0.028     0.001     0.000
    -0.016     0.002     0.000
    -0.019     0.001     0.000
    -0.008     0.000     0.000
    -0.000    -0.000     0.000
     0.008    -0.000     0.000
     0.019    -0.001     0.000
     0.016    -0.002     0.000
    -0.028    -0.001     0.000
    -0.078    -0.000     0.000
    -0.069     0.011     0.000
    -0.043     0.029     0.000
    -0.027     0.030     0.000
    -0.018     0.021     0.000
    -0.012     0.011     0.000
    -0.006     0.006     0.000
    -0.003     0.003     0.000
    -0.001     0.001     0.000
    -0.000     0.001     0.000
    -0.000     0.000     0.000
    -0.000     0.000     0.000
     0.000    -0.000     0.000
     0.000    -0.000     0.000
     0.001    -0.001     0.000
     0.002    -0.001     0.000
     0.005    -0.002     0.000
     0.011    -0.004     0.000
     0.020    -0.008     0.000
     0.025    -0.015     0.000
     0.028    -0.019     0.000
     0.035    -0.012     0.000
     0.050     0.005     0.000
     0.067     0.014     0.000
     0.036     0.008     0.000
    -0.008    -0.004     0.000
    -0.018    -0.011     0.000
    -0.009    -0.009     0.000
     0.000    -0.008     0.000
     0.009    -0.009     0.000
     0.020    -0.009     0.000
     0.016    -0.005     0.000
    -0.031     0.008     0.000
    -0.086     0.021     0.000
    -0.082     0.026     0.000
    -0.047     0.026     0.000
    -0.022     0.021     0.000
    -0.011     0.014     0.000
    -0.006     0.008     0.000
    -0.003     0.004     0.000
    -0.001     0.002     0.000
    -0.000     0.001     0.000
    -0.000     0.001     0.000
     0.000     0.000     0.000
     0.000     0.000     0.000
     0.000    -0.000     0.000
     0.000    -0.000     0.000
     0.001    -0.000     0.000
     0.002    -0.000     0.000
     0.006    -0.000     0.000
     0.013     0.001     0.000
     0.022     0.003     0.000
     0.024     0.006     0.000
     0.021     0.014     0.000
     0.025     0.024     0.000
     0.042     0.027     0.000
     0.071     0.028     0.000
     0.050     0.025     0.000
     0.002    -0.000     0.000
    -0.017    -0.016     0.000
    -0.010    -0.018     0.000
     0.001    -0.020     0.000
     0.008    -0.020     0.000
     0.012    -0.011     0.000
    -0.003     0.004     0.000
    -0.051     0.024     0.000
    -0.090     0.032     0.000
    -0.081     0.026     0.000
    -0.045     0.017     0.000
    -0.018     0.010     0.000
    -0.006     0.006     0.000
    -0.002     0.004     0.000
    -0.001     0.002     0.000
    -0.000     0.001     0.000
     0.000     0.001     0.000
     0.000     0.000     0.000
     0.000     0.000     0.000
     0.000     0.000     0.000
     0.000    -0.000     0.000
     0.000     0.000     0.000
     0.001     0.000     0.000
     0.002     0.001     0.000
     0.005     0.002     0.000
     0.010     0.005     0.000
     0.016     0.011     0.000
     0.016     0.020     0.000
     0.013     0.032     0.000
     0.016     0.041     0.000
     0.036     0.046     0.000
     0.069     0.054     0.000
     0.066     0.053     0.000
     0.029     0.028     0.000
     0.001     0.004     0.000
    -0.003    -0.008     0.000